 Gaussian 16, Revision C.01,
 Gaussian 16:  ES64L-G16RevC.01  3-Jul-2019

 ----------------------------------------------------------------------
 # td=(nstates=60) wb97xd/Def2TZVP scrf=(cpcm,solvent=n,n-DiMethylForma
 mide) geom=AllCheck guess=read maxdisk=900GB integral(ultrafinegrid)
 ----------------------------------------------------------------------

 Structure from the checkpoint file:  "rafrad_opt.chk"
 ---------
 rafradopt
 ---------
 Charge =  0 Multiplicity = 2

                         Standard orientation:
 ---------------------------------------------------------------------
 Center     Atomic      Atomic             Coordinates (Angstroms)
 Number     Number       Type             X           Y           Z
 ---------------------------------------------------------------------
      1          8           0       -0.057552    2.292897   -0.066947
      2          6           0       -0.011312    0.934909   -0.042536
      3          6           0       -1.294072    0.293824    0.007540
      4          6           0       -2.450967    1.001599   -0.376629
      5          6           0       -3.698587    0.410370   -0.317797
      6          6           0       -3.842294   -0.897285    0.131780
      7          6           0       -2.714279   -1.603700    0.535164
      8          6           0       -1.462189   -1.022648    0.481153
      9          6           0        1.284060    0.295017   -0.030430
     10          6           0        2.402349    0.965224    0.498567
     11          6           0        3.657338    0.382869    0.481137
     12          6           0        3.839901   -0.880631   -0.064035
     13          6           0        2.748053   -1.553487   -0.601469
     14          6           0        1.491965   -0.978434   -0.590521
     15          1           0        0.775836    2.646817   -0.390781
     16          1           0       -2.352777    2.017232   -0.733818
     17          1           0       -4.569643    0.973802   -0.629021
     18          1           0       -4.821036   -1.357156    0.176114
     19          1           0       -2.814283   -2.615196    0.908874
     20          1           0       -0.606830   -1.579974    0.837353
     21          1           0        2.283248    1.936872    0.962555
     22          1           0        4.497665    0.916854    0.906707
     23          1           0        4.822099   -1.334842   -0.075605
     24          1           0        2.880911   -2.531253   -1.047339
     25          1           0        0.665437   -1.502086   -1.051012
 ---------------------------------------------------------------------

 SCF Done:  E(UwB97XD) =  -577.214279662     A.U. after    1 cycles

 Excitation energies and oscillator strengths:

 Excited State   1:  2.215-A      2.7973 eV  443.22 nm  f=0.1482  <S**2>=0.977
     47A -> 53A        0.14769
     49A -> 50A        0.92114
     45B -> 50B       -0.10842
     48B -> 49B       -0.26761
 This state for optimization and/or second-order correction.
 Total Energy, E(TD-HF/TD-DFT) =  -577.111479013
 Copying the excited state density for this state as the 1-particle RhoCI density.

 Excited State   2:  2.183-A      3.3584 eV  369.18 nm  f=0.0114  <S**2>=0.942
     47A -> 52A        0.17936
     49A -> 51A        0.89261
     49A -> 52A        0.29995
     46B -> 49B       -0.16047

 Excited State   3:  2.208-A      3.4943 eV  354.82 nm  f=0.0055  <S**2>=0.968
     47A -> 51A        0.20027
     49A -> 51A       -0.30907
     49A -> 52A        0.86796
     46B -> 50B        0.10017
     47B -> 49B        0.23820

 Excited State   4:  2.866-A      3.7714 eV  328.75 nm  f=0.0029  <S**2>=1.804
     45A -> 53A        0.10077
     46A -> 51A       -0.22837
     47A -> 50A        0.34559
     48A -> 52A        0.21909
     49A -> 53A        0.44539
     45B -> 49B        0.54737
     46B -> 50B        0.12561
     46B -> 51B       -0.20218
     47B -> 52B       -0.22166
     48B -> 49B       -0.12231
     48B -> 50B        0.29182
     48B -> 51B        0.18034

 Excited State   5:  2.632-A      4.0154 eV  308.77 nm  f=0.4243  <S**2>=1.482
     45A -> 50A       -0.18822
     46A -> 51A       -0.19063
     46A -> 52A        0.14416
     48A -> 51A       -0.15087
     48A -> 52A       -0.11179
     49A -> 50A        0.34976
     45B -> 50B        0.22089
     45B -> 51B        0.14078
     46B -> 50B        0.11109
     46B -> 51B       -0.20768
     46B -> 52B       -0.15763
     47B -> 49B       -0.10804
     47B -> 50B        0.11043
     47B -> 51B       -0.13012
     47B -> 52B        0.15285
     48B -> 49B        0.69905

 Excited State   6:  2.395-A      4.3069 eV  287.87 nm  f=0.0286  <S**2>=1.184
     48A -> 50A        0.15500
     48A -> 53A        0.10158
     49A -> 52A       -0.27341
     46B -> 49B       -0.15614
     47B -> 49B        0.83599
     47B -> 50B       -0.23478
     47B -> 51B       -0.18983

 Excited State   7:  2.526-A      4.4042 eV  281.51 nm  f=0.0142  <S**2>=1.345
     46A -> 50A       -0.18332
     46A -> 51A        0.11264
     48A -> 50A       -0.10290
     49A -> 51A        0.18224
     46B -> 49B        0.82718
     46B -> 50B        0.23404
     46B -> 51B        0.25257
     47B -> 49B        0.13016
     47B -> 50B        0.13980
     48B -> 49B        0.10590

 Excited State   8:  3.169-A      4.5580 eV  272.01 nm  f=0.0037  <S**2>=2.260
     46A -> 51A        0.27503
     48A -> 51A       -0.12743
     48A -> 52A       -0.48203
     49A -> 53A        0.38106
     45B -> 49B        0.27151
     46B -> 50B       -0.22040
     46B -> 51B        0.21484
     47B -> 50B        0.14602
     47B -> 52B        0.50159
     48B -> 49B       -0.14112

 Excited State   9:  3.124-A      4.5941 eV  269.88 nm  f=0.1105  <S**2>=2.190
     46A -> 51A        0.38740
     46A -> 52A       -0.27100
     48A -> 51A        0.27563
     48A -> 52A        0.16695
     49A -> 53A        0.13253
     45B -> 49B        0.14652
     46B -> 49B       -0.10390
     46B -> 50B       -0.24456
     46B -> 51B        0.33623
     46B -> 52B        0.25145
     47B -> 50B       -0.20085
     47B -> 51B        0.17536
     47B -> 52B       -0.16256
     48B -> 49B        0.47544

 Excited State  10:  2.141-A      5.2542 eV  235.97 nm  f=0.0947  <S**2>=0.896
     46A -> 51A       -0.14518
     48A -> 52A        0.14570
     49A -> 53A        0.70911
     45B -> 49B       -0.58187
     48B -> 51B       -0.17273

 Excited State  11:  2.333-A      5.3510 eV  231.70 nm  f=0.0090  <S**2>=1.111
     45A -> 54A       -0.11336
     46A -> 50A        0.10667
     47A -> 51A       -0.13697
     49A -> 54A        0.80758
     49A -> 55A        0.12873
     49A -> 56A       -0.28961
     49A -> 57A       -0.11534
     45B -> 50B       -0.11167
     45B -> 51B        0.14680
     45B -> 52B        0.10993
     48B -> 50B       -0.14990
     48B -> 51B        0.18558

 Excited State  12:  3.015-A      5.4418 eV  227.84 nm  f=0.0031  <S**2>=2.022
     45A -> 51A       -0.15850
     46A -> 50A       -0.34434
     46A -> 51A        0.12151
     46A -> 53A        0.14998
     47A -> 50A        0.15292
     47A -> 51A        0.19567
     49A -> 53A       -0.14904
     49A -> 54A        0.36959
     45B -> 50B        0.23454
     45B -> 51B       -0.34351
     45B -> 52B       -0.18374
     48B -> 50B        0.34366
     48B -> 51B       -0.35883
     48B -> 52B       -0.14457

 Excited State  13:  3.184-A      5.5412 eV  223.75 nm  f=0.0009  <S**2>=2.285
     45A -> 51A        0.10624
     45A -> 52A        0.15617
     46A -> 53A       -0.11208
     47A -> 50A        0.17680
     47A -> 52A        0.21295
     48A -> 50A        0.40720
     48A -> 53A        0.20264
     45B -> 50B       -0.20095
     45B -> 51B        0.18059
     45B -> 52B       -0.32691
     48B -> 50B        0.26259
     48B -> 52B        0.56414

 Excited State  14:  3.042-A      5.6818 eV  218.21 nm  f=0.0079  <S**2>=2.064
     45A -> 50A       -0.10761
     45A -> 53A        0.23709
     46A -> 50A        0.17666
     47A -> 50A        0.52156
     47A -> 51A       -0.14395
     48A -> 50A       -0.12339
     48A -> 53A       -0.10476
     49A -> 53A       -0.15269
     41B -> 49B       -0.14414
     45B -> 49B       -0.39681
     45B -> 52B        0.12484
     45B -> 54B        0.23577
     46B -> 51B        0.11350
     47B -> 52B        0.10685
     48B -> 50B        0.25648
     48B -> 51B        0.31872
     48B -> 52B       -0.12893

 Excited State  15:  3.000-A      5.8330 eV  212.56 nm  f=0.0308  <S**2>=2.000
     45A -> 50A       -0.15711
     45A -> 51A       -0.30300
     46A -> 50A        0.57216
     46A -> 53A       -0.25992
     47A -> 51A        0.37521
     47A -> 52A       -0.22026
     48A -> 50A        0.34659
     49A -> 51A        0.15239
     45B -> 50B        0.15771
     46B -> 49B        0.19977

 Excited State  16:  3.110-A      5.9132 eV  209.67 nm  f=0.0304  <S**2>=2.168
     45A -> 50A        0.43893
     45A -> 51A       -0.10492
     45A -> 52A        0.14378
     46A -> 50A        0.29702
     47A -> 51A        0.22067
     47A -> 53A        0.28174
     48A -> 50A       -0.28475
     48A -> 53A       -0.19948
     49A -> 52A       -0.10190
     49A -> 65A        0.12991
     39B -> 49B       -0.16949
     45B -> 50B       -0.31013
     45B -> 51B       -0.19569
     48B -> 49B        0.25316
     48B -> 50B        0.14394
     48B -> 54B       -0.26215

 Excited State  17:  3.116-A      5.9929 eV  206.89 nm  f=0.0153  <S**2>=2.177
     45A -> 50A        0.25897
     45A -> 51A       -0.16490
     45A -> 52A       -0.27396
     46A -> 50A       -0.19335
     47A -> 51A       -0.17697
     47A -> 52A       -0.36015
     47A -> 53A        0.19697
     48A -> 50A        0.48661
     48A -> 53A        0.22749
     49A -> 52A        0.14716
     39B -> 49B       -0.11102
     45B -> 50B       -0.14169
     45B -> 51B       -0.17489
     45B -> 52B        0.14211
     47B -> 49B       -0.16741
     47B -> 52B        0.11157
     48B -> 49B        0.10598
     48B -> 52B       -0.19926
     48B -> 54B       -0.15314

 Excited State  18:  2.144-A      6.1308 eV  202.23 nm  f=0.0053  <S**2>=0.899
     38B -> 49B        0.14794
     40B -> 50B       -0.11812
     41B -> 49B        0.11183
     42B -> 49B       -0.27524
     44B -> 49B        0.86500

 Excited State  19:  2.105-A      6.2964 eV  196.91 nm  f=0.0139  <S**2>=0.858
     49A -> 54A       -0.26561
     49A -> 55A        0.62721
     49A -> 56A       -0.57071
     49A -> 57A        0.26476
     49A -> 60A        0.22517

 Excited State  20:  2.453-A      6.3227 eV  196.09 nm  f=0.0485  <S**2>=1.255
     45A -> 51A       -0.23230
     46A -> 51A        0.19775
     47A -> 51A        0.26972
     47A -> 52A       -0.16299
     42B -> 49B        0.12415
     45B -> 51B        0.21652
     46B -> 49B       -0.36651
     46B -> 50B        0.52702
     46B -> 51B        0.15170
     46B -> 54B        0.25618
     47B -> 50B        0.26176
     48B -> 51B        0.26032
     48B -> 52B        0.12198

 Excited State  21:  2.441-A      6.3860 eV  194.15 nm  f=0.0563  <S**2>=1.240
     45A -> 52A       -0.22413
     47A -> 51A       -0.18723
     47A -> 52A       -0.27943
     48A -> 52A        0.20388
     43B -> 49B       -0.13224
     45B -> 52B       -0.15787
     46B -> 50B       -0.23405
     47B -> 49B        0.31492
     47B -> 50B        0.51910
     47B -> 51B        0.21777
     47B -> 54B       -0.28133
     48B -> 50B        0.12401
     48B -> 51B       -0.12475
     48B -> 52B        0.25230

 Excited State  22:  2.101-A      6.4300 eV  192.82 nm  f=0.0227  <S**2>=0.854
     46A -> 51A       -0.35652
     47A -> 50A        0.42797
     47A -> 51A        0.16723
     48A -> 52A        0.19285
     41B -> 49B        0.13207
     42B -> 49B       -0.13350
     44B -> 49B       -0.14726
     45B -> 49B        0.10204
     45B -> 50B       -0.13667
     45B -> 54B       -0.12480
     46B -> 51B        0.39819
     47B -> 52B        0.20194
     48B -> 50B       -0.41684

 Excited State  23:  2.080-A      6.5094 eV  190.47 nm  f=0.5202  <S**2>=0.832
     45A -> 50A        0.16898
     46A -> 51A        0.23427
     46A -> 52A       -0.25152
     47A -> 50A        0.12406
     47A -> 52A        0.18517
     48A -> 51A        0.32014
     48A -> 52A        0.33900
     49A -> 56A        0.10014
     42B -> 49B       -0.12064
     43B -> 49B        0.18945
     45B -> 50B        0.21102
     46B -> 51B       -0.22966
     46B -> 52B       -0.22331
     47B -> 50B        0.13777
     47B -> 51B       -0.27995
     47B -> 52B        0.38608
     48B -> 54B        0.11476

 Excited State  24:  2.135-A      6.5427 eV  189.50 nm  f=0.0057  <S**2>=0.889
     49A -> 55A        0.60354
     49A -> 56A        0.55472
     49A -> 58A        0.21450
     49A -> 59A        0.36602
     43B -> 49B        0.13567

 Excited State  25:  2.254-A      6.5620 eV  188.94 nm  f=0.0060  <S**2>=1.020
     49A -> 55A       -0.13339
     49A -> 56A       -0.14918
     42B -> 49B       -0.28762
     42B -> 50B        0.19411
     42B -> 51B        0.12749
     43B -> 49B        0.79112
     44B -> 50B        0.15282
     44B -> 51B        0.11167
     47B -> 52B       -0.11598

 Excited State  26:  2.284-A      6.6430 eV  186.64 nm  f=0.0098  <S**2>=1.054
     38B -> 49B       -0.14773
     41B -> 49B       -0.11679
     42B -> 49B        0.73049
     43B -> 49B        0.35216
     43B -> 50B        0.25381
     43B -> 51B        0.16409
     44B -> 49B        0.24884
     44B -> 50B       -0.10048
     48B -> 51B       -0.11390

 Excited State  27:  2.119-A      6.8929 eV  179.87 nm  f=0.0066  <S**2>=0.872
     49A -> 54A        0.24653
     49A -> 56A        0.20692
     49A -> 57A        0.72088
     49A -> 58A       -0.30552
     49A -> 61A       -0.32599
     49A -> 62A        0.22113
     49A -> 66A       -0.13939

 Excited State  28:  2.144-A      6.9392 eV  178.67 nm  f=0.0131  <S**2>=0.899
     49A -> 55A       -0.22056
     49A -> 56A       -0.12885
     49A -> 57A        0.37661
     49A -> 58A        0.66160
     49A -> 59A        0.22580
     49A -> 61A        0.14256
     49A -> 62A        0.22503
     49A -> 64A       -0.12432
     41B -> 49B       -0.27196
     42B -> 49B       -0.11890

 Excited State  29:  2.257-A      6.9733 eV  177.80 nm  f=0.0953  <S**2>=1.023
     45A -> 51A       -0.16076
     46A -> 50A       -0.14632
     47A -> 51A        0.13199
     47A -> 52A       -0.21334
     48A -> 50A       -0.16446
     49A -> 57A        0.10157
     49A -> 58A        0.27806
     40B -> 49B       -0.32074
     41B -> 49B        0.52826
     42B -> 49B        0.12854
     43B -> 50B        0.17232
     43B -> 51B        0.11183
     44B -> 50B        0.19403
     45B -> 51B        0.15369
     46B -> 50B       -0.16982
     46B -> 51B       -0.10548
     47B -> 50B       -0.19504
     47B -> 51B       -0.12996
     48B -> 51B        0.11466
     48B -> 52B        0.14102

 Excited State  30:  2.157-A      7.0369 eV  176.19 nm  f=0.2270  <S**2>=0.913
     45A -> 51A        0.16891
     46A -> 50A        0.14247
     46A -> 51A       -0.18566
     47A -> 50A       -0.20593
     47A -> 51A       -0.13934
     47A -> 52A        0.21981
     48A -> 50A        0.17516
     49A -> 58A        0.12685
     38B -> 49B        0.13763
     40B -> 49B        0.16414
     41B -> 49B        0.45816
     45B -> 51B       -0.10585
     46B -> 50B        0.18687
     46B -> 51B        0.29869
     46B -> 54B        0.10147
     47B -> 50B        0.16322
     47B -> 51B        0.12323
     47B -> 52B        0.10138
     48B -> 50B        0.35209
     48B -> 52B       -0.18942

 Excited State  31:  2.131-A      7.0595 eV  175.63 nm  f=0.4954  <S**2>=0.886
     46A -> 51A        0.29521
     47A -> 50A        0.38636
     47A -> 52A        0.16705
     48A -> 50A        0.15342
     48A -> 52A       -0.32829
     41B -> 49B        0.28773
     46B -> 51B       -0.29456
     47B -> 50B        0.26012
     47B -> 51B        0.15455
     47B -> 52B       -0.31732
     48B -> 50B       -0.26836
     48B -> 52B       -0.17363

 Excited State  32:  2.357-A      7.1182 eV  174.18 nm  f=0.1216  <S**2>=1.139
     45A -> 51A       -0.11043
     46A -> 50A       -0.23255
     47A -> 51A        0.25007
     40B -> 49B        0.63280
     42B -> 50B        0.11541
     44B -> 50B       -0.24932
     44B -> 51B       -0.14791
     45B -> 51B        0.12929
     46B -> 50B       -0.30585
     48B -> 50B        0.10156
     48B -> 51B        0.27221

 Excited State  33:  2.191-A      7.1489 eV  173.43 nm  f=0.1935  <S**2>=0.950
     45A -> 52A       -0.19519
     46A -> 50A        0.26328
     46A -> 51A        0.10666
     47A -> 50A        0.17183
     47A -> 51A       -0.32515
     47A -> 52A       -0.26763
     48A -> 50A       -0.23635
     40B -> 49B        0.32495
     41B -> 49B        0.15279
     45B -> 52B       -0.11444
     46B -> 50B        0.32748
     47B -> 50B       -0.30644
     47B -> 54B        0.10451
     48B -> 51B       -0.30031
     48B -> 52B        0.21258

 Excited State  34:  2.068-A      7.2608 eV  170.76 nm  f=0.4265  <S**2>=0.819
     45A -> 50A        0.60923
     46A -> 51A       -0.11012
     47A -> 53A        0.14594
     48A -> 51A       -0.15498
     48A -> 52A       -0.12089
     39B -> 49B        0.15812
     45B -> 50B        0.55970
     45B -> 51B        0.22964
     46B -> 51B        0.10572
     47B -> 51B        0.11547
     47B -> 52B       -0.13609
     48B -> 50B       -0.10253
     48B -> 54B        0.13062

 Excited State  35:  2.710-A      7.3491 eV  168.71 nm  f=0.0007  <S**2>=1.586
     39A -> 50A       -0.20170
     45A -> 53A        0.14601
     47A -> 65A        0.13934
     49A -> 60A        0.13456
     49A -> 63A        0.25489
     49A -> 68A       -0.14271
     49A -> 69A       -0.10349
     38B -> 49B        0.62314
     39B -> 49B        0.12170
     39B -> 50B        0.26785
     39B -> 51B        0.11841
     40B -> 50B        0.14108
     40B -> 51B        0.10653
     45B -> 54B        0.11347
     48B -> 50B       -0.17946
     48B -> 65B       -0.11563

 Excited State  36:  2.830-A      7.3716 eV  168.19 nm  f=0.0112  <S**2>=1.752
     38A -> 50A       -0.11922
     39A -> 50A       -0.12163
     39A -> 53A        0.10078
     40A -> 50A        0.17349
     45A -> 50A        0.18182
     45A -> 65A       -0.10055
     49A -> 57A        0.10075
     49A -> 62A       -0.24853
     49A -> 63A        0.27570
     49A -> 65A       -0.28409
     38B -> 49B       -0.17866
     38B -> 50B        0.17282
     38B -> 51B        0.10803
     39B -> 49B        0.48631
     40B -> 50B       -0.11384
     41B -> 50B       -0.16215
     41B -> 51B       -0.10294
     45B -> 50B       -0.28654
     45B -> 51B       -0.10425
     45B -> 65B       -0.11684
     48B -> 49B        0.11137

 Excited State  37:  2.341-A      7.4763 eV  165.84 nm  f=0.0038  <S**2>=1.119
     43A -> 51A       -0.15728
     45A -> 55A       -0.10330
     47A -> 55A       -0.11218
     49A -> 55A       -0.21084
     49A -> 58A       -0.22363
     49A -> 59A        0.57218
     49A -> 60A        0.46952
     49A -> 61A       -0.12309
     49A -> 63A        0.22343
     49A -> 64A        0.13523
     49A -> 65A        0.12531
     49A -> 67A        0.12424
     38B -> 49B       -0.11123
     43B -> 51B       -0.10068

 Excited State  38:  2.456-A      7.4990 eV  165.33 nm  f=0.0025  <S**2>=1.258
     43A -> 51A        0.12314
     43A -> 52A       -0.11978
     44A -> 51A        0.13924
     44A -> 52A        0.14968
     49A -> 56A       -0.18192
     49A -> 57A        0.11747
     49A -> 58A       -0.23295
     49A -> 59A        0.50523
     49A -> 60A       -0.22806
     49A -> 61A        0.12607
     49A -> 62A       -0.15955
     49A -> 63A       -0.40519
     49A -> 64A        0.14550
     49A -> 65A       -0.17496
     49A -> 66A        0.14960
     38B -> 49B        0.10489
     44B -> 52B       -0.10866

 Excited State  39:  3.360-A      7.5201 eV  164.87 nm  f=0.0003  <S**2>=2.572
     42A -> 52A        0.22739
     43A -> 51A       -0.23844
     43A -> 52A       -0.12317
     44A -> 50A        0.14973
     44A -> 51A        0.19600
     44A -> 52A        0.52540
     46A -> 52A       -0.11270
     49A -> 59A       -0.17783
     40B -> 52B       -0.10232
     42B -> 52B       -0.17232
     43B -> 50B        0.13967
     43B -> 51B       -0.14373
     43B -> 52B        0.10713
     44B -> 50B       -0.13054
     44B -> 52B       -0.39262

 Excited State  40:  3.239-A      7.5369 eV  164.50 nm  f=0.0001  <S**2>=2.372
     41A -> 51A        0.11741
     42A -> 51A        0.20785
     43A -> 51A        0.42810
     43A -> 52A       -0.24511
     44A -> 51A        0.22561
     48A -> 51A       -0.13351
     49A -> 60A        0.24834
     49A -> 63A        0.21658
     49A -> 65A        0.10407
     38B -> 49B       -0.11229
     39B -> 51B       -0.10533
     42B -> 50B       -0.13301
     42B -> 51B        0.13549
     43B -> 50B       -0.17391
     43B -> 51B        0.31564
     43B -> 52B        0.19093
     44B -> 50B       -0.11650
     44B -> 51B        0.17923
     47B -> 51B       -0.19272

 Excited State  41:  2.931-A      7.6118 eV  162.88 nm  f=0.0163  <S**2>=1.898
     39A -> 51A        0.21085
     43A -> 51A        0.10759
     47A -> 51A        0.13258
     49A -> 57A       -0.15953
     49A -> 61A       -0.19065
     49A -> 62A        0.37180
     39B -> 49B        0.17404
     39B -> 51B        0.23935
     45B -> 50B       -0.22038
     45B -> 51B        0.38535
     45B -> 52B        0.15826
     47B -> 51B        0.12095
     48B -> 50B        0.12419
     48B -> 51B       -0.32545
     48B -> 52B       -0.21320

 Excited State  42:  2.646-A      7.6318 eV  162.46 nm  f=0.0111  <S**2>=1.500
     39A -> 51A       -0.10847
     47A -> 51A       -0.12468
     49A -> 57A       -0.23492
     49A -> 60A       -0.18722
     49A -> 61A       -0.23641
     49A -> 62A        0.51226
     49A -> 63A       -0.14556
     49A -> 66A       -0.10823
     49A -> 73A       -0.11543
     39B -> 49B        0.24269

 The electronic state is 2-A.
 Alpha  occ. eigenvalues --  -19.29204 -10.35675 -10.30928 -10.30418 -10.29639
 Alpha  occ. eigenvalues --  -10.29500 -10.29315 -10.29246 -10.29171 -10.29150
 Alpha  occ. eigenvalues --  -10.28951 -10.28913 -10.28876 -10.28817  -1.18048
 Alpha  occ. eigenvalues --   -0.97489  -0.96508  -0.89387  -0.85939  -0.85567
 Alpha  occ. eigenvalues --   -0.84990  -0.78092  -0.72090  -0.71191  -0.69784
 Alpha  occ. eigenvalues --   -0.67768  -0.64072  -0.61832  -0.58834  -0.56484
 Alpha  occ. eigenvalues --   -0.54919  -0.54618  -0.53813  -0.52140  -0.51644
 Alpha  occ. eigenvalues --   -0.51232  -0.50240  -0.47395  -0.47039  -0.45805
 Alpha  occ. eigenvalues --   -0.44991  -0.43470  -0.42804  -0.41937  -0.37246
 Alpha  occ. eigenvalues --   -0.34647  -0.34311  -0.34233  -0.23007
 Alpha virt. eigenvalues --    0.03277   0.04618   0.05419   0.10010   0.12065
 Alpha virt. eigenvalues --    0.13708   0.13878   0.15488   0.16422   0.17331
 Alpha virt. eigenvalues --    0.17553   0.18693   0.18842   0.20145   0.20422

  Beta  occ. eigenvalues --  -19.28932 -10.34886 -10.31094 -10.30605 -10.29472
  Beta  occ. eigenvalues --  -10.29390 -10.29360 -10.29297 -10.29028 -10.28996
  Beta  occ. eigenvalues --  -10.28989 -10.28951 -10.28726 -10.28629  -1.17208
  Beta  occ. eigenvalues --   -0.97200  -0.96305  -0.88693  -0.85728  -0.85347
  Beta  occ. eigenvalues --   -0.84784  -0.76772  -0.71759  -0.71038  -0.69612
  Beta  occ. eigenvalues --   -0.67512  -0.63799  -0.61621  -0.58363  -0.56143
  Beta  occ. eigenvalues --   -0.54579  -0.54133  -0.53424  -0.51839  -0.51423
  Beta  occ. eigenvalues --   -0.50979  -0.49324  -0.46899  -0.46531  -0.44835
  Beta  occ. eigenvalues --   -0.44534  -0.43253  -0.42686  -0.41743  -0.35253
  Beta  occ. eigenvalues --   -0.34020  -0.33502  -0.33372
  Beta virt. eigenvalues --   -0.01831   0.04465   0.05129   0.05963   0.12171
  Beta virt. eigenvalues --    0.12790   0.13744   0.13953   0.15498   0.16433
  Beta virt. eigenvalues --    0.17398   0.17597   0.18703   0.18883   0.20202

 Mulliken charges and spin densities:
               1          2
     1  O   -0.447001   0.083390
     2  C    0.270045   0.561601
     3  C    0.162114  -0.110220
     4  C   -0.255856   0.158533
     5  C   -0.118163  -0.076563
     6  C   -0.174188   0.163204
     7  C   -0.116789  -0.075282
     8  C   -0.330549   0.148044
     9  C    0.154299  -0.089949
    10  C   -0.272054   0.128307
    11  C   -0.148038  -0.063794
    12  C   -0.164245   0.134012
    13  C   -0.110705  -0.061987
    14  C   -0.341039   0.121866
    15  H    0.359316   0.002206
    16  H    0.145286  -0.006825
    17  H    0.141510   0.003236
    18  H    0.143808  -0.007149
    19  H    0.142262   0.003273
    20  H    0.180312  -0.005000
    21  H    0.162214  -0.006247
    22  H    0.144684   0.002774
    23  H    0.146075  -0.005792
    24  H    0.144741   0.002768
    25  H    0.181959  -0.004405
 Sum of Mulliken charges =  -0.00000   1.00000

 Dipole moment (field-independent basis, Debye):
    X=              1.9661    Y=             -0.0787    Z=             -0.5806  Tot=              2.0516
 Quadrupole moment (field-independent basis, Debye-Ang):
   XX=            -70.0974   YY=            -72.8629   ZZ=            -85.5440
   XY=              3.6914   XZ=              1.6396   YZ=             -1.1724

 Normal termination of Gaussian 16 at Thu May 15 21:02:56 2025.
